# vtk DataFile Version 1.0
simulacni krok 0
ASCII

DATASET POLYDATA
POINTS 4 double
1.0 1.0 0.0
0.0 -1.0 -1.0
0.0 0.0 -1.0
-1.0 0.0 0.0

POINT_DATA 4
VECTORS radii double
2.0 1.0 2.0
1.0 1.0 1.0
0.5 2.0 1.0
1.0 1.0 1.0
